
Host: cs005.hpc.nyu.edu

Timers On : Tue Nov 15 14:43:12 2022
Timers Off: Tue Nov 15 14:43:12 2022

Wall Time:        0.39 seconds

                                                       Time (seconds)
Module                                       User      System        Wall        Calls

--------------------------------------------------------------------------------------

**************************************************************************************
